! ADL8100ACPZN De-embedded S-parameters, generated by simulating and removing input and output trace losses of ADL8100-EVALZ evaluation board
! VDD=5 V
! IDQ=220 mA
! RBIAS=560 Ohm
! Temperature=25 degC
! Date: April 8th, 2025
#  GHz  S  DB  R 50
0.010000	-10.571277	168.538870	21.580182	-174.035146	-31.721818	7.031854	-8.980296	-169.432684
0.020000	-10.608874	169.559612	21.572999	-174.683913	-31.814185	6.339278	-8.926905	-169.726743
0.030000	-10.646826	170.581435	21.565802	-175.332981	-31.907558	5.646401	-8.874400	-170.020400
0.040000	-10.685109	171.604523	21.558610	-175.982204	-32.001938	4.953369	-8.822754	-170.313669
0.050000	-10.723737	172.629390	21.551406	-176.631450	-32.097365	4.260315	-8.771961	-170.606303
0.060000	-10.762672	173.655894	21.544209	-177.280773	-32.193843	3.567183	-8.721993	-170.898620
0.070000	-10.801924	174.684473	21.537002	-177.930109	-32.291411	2.874039	-8.672843	-171.190448
0.080000	-10.841454	175.715244	21.529806	-178.579474	-32.390077	2.180865	-8.624475	-171.481888
0.090000	-10.881247	176.748617	21.522620	-179.228821	-32.489864	1.487709	-8.576867	-171.772791
0.100000	-10.921308	177.784518	21.515412	-179.878220	-32.590833	0.794501	-8.530035	-172.063410
0.110000	-10.961635	178.821825	21.508185	179.473834	-32.692769	0.103088	-8.483915	-172.352396
0.120000	-11.036434	179.029377	21.476510	179.537441	-32.701638	0.293720	-8.442742	-172.101212
0.130000	-11.112061	179.239048	21.444721	179.600926	-32.710511	0.484230	-8.401856	-171.850234
0.140000	-11.188508	179.450742	21.412835	179.664256	-32.719373	0.674586	-8.361234	-171.599582
0.150000	-11.265813	179.664698	21.380833	179.727475	-32.728241	0.864831	-8.320891	-171.349111
0.160000	-11.343969	179.880821	21.348731	179.790551	-32.737097	1.054932	-8.280805	-171.098943
0.170000	-11.423011	-179.900818	21.316511	179.853485	-32.745960	1.244892	-8.240991	-170.849069
0.180000	-11.502941	-179.679970	21.284189	179.916322	-32.754812	1.434754	-8.201429	-170.599348
0.190000	-11.583772	-179.456729	21.251763	179.979024	-32.763653	1.624482	-8.162113	-170.349904
0.200000	-11.665537	-179.231014	21.219217	-179.958406	-32.772502	1.814076	-8.123059	-170.100729
0.210000	-11.748122	-179.001388	21.186596	-179.895523	-32.781467	2.002879	-8.084321	-169.852002
0.220000	-11.797964	-178.432749	21.165989	-179.722565	-32.817890	2.026307	-8.060336	-169.650357
0.230000	-11.848049	-177.861774	21.145342	-179.549659	-32.854460	2.049683	-8.036499	-169.448582
0.240000	-11.898385	-177.288774	21.124636	-179.376880	-32.891193	2.072932	-8.012825	-169.246937
0.250000	-11.948972	-176.713526	21.103873	-179.204190	-32.928092	2.096093	-7.989312	-169.045292
0.260000	-11.999793	-176.135986	21.083069	-179.031587	-32.965141	2.119165	-7.965940	-168.843651
0.270000	-12.050845	-175.556107	21.062224	-178.859069	-33.002340	2.142153	-7.942709	-168.642011
0.280000	-12.102137	-174.974030	21.041321	-178.686675	-33.039707	2.165017	-7.919631	-168.440507
0.290000	-12.153678	-174.389337	21.020360	-178.514332	-33.077246	2.187831	-7.896708	-168.238877
0.300000	-12.205437	-173.802358	20.999358	-178.342111	-33.114938	2.210521	-7.873917	-168.037386
0.310000	-12.257266	-173.212669	20.978362	-178.169775	-33.152689	2.235100	-7.851382	-167.836109
0.320000	-12.284028	-172.590056	20.964978	-177.964495	-33.174613	2.586209	-7.849388	-167.669227
0.330000	-12.310712	-171.966023	20.951585	-177.759286	-33.196581	2.937247	-7.847450	-167.502166
0.340000	-12.337319	-171.341148	20.938166	-177.554261	-33.218610	3.288101	-7.845580	-167.335326
0.350000	-12.363842	-170.714852	20.924738	-177.349308	-33.240685	3.638883	-7.843768	-167.168314
0.360000	-12.390287	-170.087524	20.911284	-177.144506	-33.262822	3.989515	-7.842025	-167.001397
0.370000	-12.416651	-169.459167	20.897804	-176.939854	-33.285022	4.339996	-7.840353	-166.834580
0.380000	-12.442919	-168.829583	20.884315	-176.735312	-33.307267	4.690367	-7.838737	-166.667730
0.390000	-12.469088	-168.198777	20.870817	-176.530882	-33.329557	5.040626	-7.837175	-166.500851
0.400000	-12.495164	-167.567143	20.857294	-176.326639	-33.351910	5.390699	-7.835682	-166.334210
0.410000	-12.521022	-166.934364	20.843796	-176.122548	-33.374292	5.740769	-7.834225	-166.167097
0.420000	-12.532238	-166.334696	20.834566	-175.927585	-33.394550	6.100264	-7.830167	-165.960633
0.430000	-12.543310	-165.734395	20.825336	-175.732690	-33.414845	6.459692	-7.826152	-165.754191
0.440000	-12.554255	-165.133470	20.816089	-175.537867	-33.435196	6.819048	-7.822200	-165.547774
0.450000	-12.565065	-164.532333	20.806827	-175.343190	-33.455601	7.178258	-7.818304	-165.341649
0.460000	-12.575727	-163.930589	20.797566	-175.148582	-33.476045	7.537399	-7.814452	-165.135552
0.470000	-12.586238	-163.328450	20.788306	-174.954080	-33.496527	7.896433	-7.810641	-164.929617
0.480000	-12.596615	-162.725721	20.779029	-174.759653	-33.517064	8.255393	-7.806892	-164.723714
0.490000	-12.606853	-162.122817	20.769737	-174.565373	-33.537657	8.614207	-7.803199	-164.518110
0.500000	-12.616937	-161.519345	20.760445	-174.371166	-33.558288	8.972947	-7.799550	-164.312543
0.510000	-12.626768	-160.915359	20.751181	-174.176979	-33.578687	9.330274	-7.796022	-164.106862
0.520000	-12.626894	-160.295793	20.744462	-173.974104	-33.572208	9.558454	-7.800508	-163.873106
0.530000	-12.626900	-159.676342	20.737729	-173.771355	-33.565744	9.786508	-7.805064	-163.639511
0.540000	-12.626769	-159.057014	20.730997	-173.568726	-33.559276	10.014442	-7.809673	-163.406072
0.550000	-12.626520	-158.437812	20.724250	-173.366222	-33.552821	10.242251	-7.814351	-163.172793
0.560000	-12.626134	-157.818743	20.717506	-173.163839	-33.546364	10.469940	-7.819083	-162.939672
0.570000	-12.625629	-157.199608	20.710746	-172.961547	-33.539921	10.697536	-7.823887	-162.706579
0.580000	-12.624987	-156.580825	20.703989	-172.759414	-33.533473	10.924974	-7.828741	-162.473780
0.590000	-12.624226	-155.962194	20.697217	-172.557411	-33.527039	11.152283	-7.833666	-162.241145
0.600000	-12.623327	-155.343723	20.690448	-172.355532	-33.520602	11.379466	-7.838644	-162.008672
0.610000	-12.622285	-154.726111	20.683668	-172.153896	-33.514486	11.608002	-7.843673	-161.776154
0.620000	-12.619085	-154.166046	20.677172	-171.961647	-33.533807	11.958382	-7.847245	-161.526593
0.630000	-12.615751	-153.606121	20.670681	-171.769510	-33.553162	12.308651	-7.850846	-161.277109
0.640000	-12.612282	-153.046552	20.664195	-171.577522	-33.572551	12.658771	-7.854471	-161.027836
0.650000	-12.608695	-152.486927	20.657695	-171.385611	-33.591994	13.008813	-7.858145	-160.778505
0.660000	-12.604990	-151.927671	20.651183	-171.193852	-33.611488	13.358704	-7.861862	-160.529387
0.670000	-12.601151	-151.368588	20.644676	-171.002206	-33.631018	13.708481	-7.865607	-160.280349
0.680000	-12.597195	-150.809891	20.638157	-170.810714	-33.650599	14.058106	-7.869395	-160.031528
0.690000	-12.593121	-150.251171	20.631624	-170.619302	-33.670235	14.407649	-7.873231	-159.782653
0.700000	-12.588913	-149.692857	20.625096	-170.428040	-33.689905	14.757043	-7.877092	-159.533998
0.710000	-12.584526	-149.134808	20.618594	-170.236927	-33.709434	15.103290	-7.881059	-159.285105
0.720000	-12.576902	-148.581305	20.613512	-170.048288	-33.716503	15.236018	-7.890521	-159.013587
0.730000	-12.569173	-148.027771	20.608450	-169.859735	-33.723555	15.368660	-7.900023	-158.741917
0.740000	-12.561390	-147.474823	20.603361	-169.671388	-33.730638	15.501096	-7.909605	-158.470498
0.750000	-12.553518	-146.921847	20.598274	-169.483133	-33.737721	15.633439	-7.919244	-158.198926
0.760000	-12.545574	-146.369257	20.593175	-169.295046	-33.744819	15.765615	-7.928950	-157.927471
0.770000	-12.537541	-145.817061	20.588082	-169.107124	-33.751914	15.897626	-7.938705	-157.656132
0.780000	-12.529435	-145.265050	20.582975	-168.919335	-33.759025	16.029504	-7.948530	-157.384774
0.790000	-12.521239	-144.713230	20.577873	-168.731676	-33.766135	16.161252	-7.958407	-157.113395
0.800000	-12.512970	-144.161809	20.572759	-168.544187	-33.773260	16.292829	-7.968351	-156.842132
0.810000	-12.504579	-143.611223	20.567630	-168.356797	-33.780410	16.427537	-7.978324	-156.571130
0.820000	-12.493113	-143.087650	20.562314	-168.165157	-33.788208	16.765005	-7.986058	-156.309196
0.830000	-12.481580	-142.564753	20.556989	-167.973676	-33.796021	17.102316	-7.993838	-156.047491
0.840000	-12.469979	-142.042326	20.551652	-167.782313	-33.803848	17.439508	-8.001666	-155.785873
0.850000	-12.458296	-141.520584	20.546322	-167.591104	-33.811672	17.776546	-8.009523	-155.524486
0.860000	-12.446546	-140.999318	20.540982	-167.400017	-33.819512	18.113462	-8.017429	-155.263189
0.870000	-12.434715	-140.478743	20.535648	-167.209083	-33.827347	18.450224	-8.025363	-155.002125
0.880000	-12.422820	-139.958857	20.530306	-167.018310	-33.835196	18.786828	-8.033343	-154.741293
0.890000	-12.410863	-139.439661	20.524953	-166.827693	-33.843059	19.123273	-8.041368	-154.480691
0.900000	-12.398842	-138.920952	20.519590	-166.637200	-33.850937	19.459595	-8.049443	-154.220185
0.910000	-12.386771	-138.403273	20.514240	-166.446898	-33.858938	19.795170	-8.057565	-153.959617
0.920000	-12.376238	-137.904030	20.509199	-166.258632	-33.873875	20.098360	-8.066806	-153.682897
0.930000	-12.365633	-137.405584	20.504168	-166.070558	-33.888826	20.401356	-8.076070	-153.406477
0.940000	-12.354970	-136.907521	20.499125	-165.882612	-33.903812	20.704225	-8.085381	-153.130080
0.950000	-12.344253	-136.410052	20.494074	-165.694831	-33.918830	21.006929	-8.094735	-152.853847
0.960000	-12.333480	-135.913177	20.489013	-165.507213	-33.933880	21.309470	-8.104133	-152.577777
0.970000	-12.322636	-135.416904	20.483961	-165.319755	-33.948946	21.611852	-8.113557	-152.301873
0.980000	-12.311736	-134.921030	20.478899	-165.132428	-33.964047	21.914101	-8.123029	-152.025998
0.990000	-12.300769	-134.425966	20.473846	-164.945295	-33.979161	22.216157	-8.132523	-151.750429
1.000000	-12.289763	-133.931299	20.468766	-164.758297	-33.994327	22.518078	-8.142081	-151.474886
1.010000	-12.278728	-133.436763	20.463689	-164.571487	-34.009275	22.816859	-8.151647	-151.199427
1.020000	-12.269618	-132.919114	20.458390	-164.386105	-34.012782	22.969535	-8.160331	-150.919896
1.030000	-12.260474	-132.402130	20.453066	-164.200932	-34.016313	23.122000	-8.169081	-150.640679
1.040000	-12.251259	-131.885413	20.447747	-164.015889	-34.019836	23.274337	-8.177873	-150.361492
1.050000	-12.241991	-131.369164	20.442418	-163.831016	-34.023367	23.426504	-8.186718	-150.082479
1.060000	-12.232671	-130.853386	20.437079	-163.646314	-34.026907	23.578499	-8.195617	-149.803638
1.070000	-12.223281	-130.338085	20.431748	-163.461778	-34.030436	23.730329	-8.204552	-149.524971
1.080000	-12.213839	-129.823258	20.426408	-163.277412	-34.033974	23.881988	-8.213541	-149.246476
1.090000	-12.204348	-129.309110	20.421060	-163.093253	-34.037517	24.033440	-8.222578	-148.968296
1.100000	-12.194800	-128.795237	20.415700	-162.909231	-34.041069	24.184756	-8.231673	-148.690147
1.110000	-12.185115	-128.282954	20.410364	-162.725273	-34.044537	24.340314	-8.240807	-148.412121
1.120000	-12.172200	-127.811202	20.405666	-162.535337	-34.044746	24.693283	-8.250384	-148.125545
1.130000	-12.159266	-127.340371	20.400963	-162.345598	-34.044959	25.046055	-8.259994	-147.839356
1.140000	-12.146309	-126.870256	20.396251	-162.156020	-34.045176	25.398665	-8.269639	-147.553410
1.150000	-12.133315	-126.400862	20.391550	-161.966600	-34.045381	25.751118	-8.279305	-147.267711
1.160000	-12.120317	-125.932177	20.386823	-161.777347	-34.045607	26.103403	-8.289023	-146.982256
1.170000	-12.107285	-125.464414	20.382109	-161.588288	-34.045819	26.455495	-8.298757	-146.697193
1.180000	-12.094231	-124.997163	20.377385	-161.399358	-34.046038	26.807457	-8.308532	-146.412234
1.190000	-12.081144	-124.530825	20.372674	-161.210618	-34.046242	27.159229	-8.318322	-146.127665
1.200000	-12.068056	-124.065196	20.367938	-161.022050	-34.046467	27.510830	-8.328166	-145.843345
1.210000	-12.054937	-123.600517	20.363203	-160.833689	-34.047086	27.859190	-8.338081	-145.558772
1.220000	-12.041760	-123.138074	20.358008	-160.646119	-34.064341	28.083367	-8.350328	-145.248051
1.230000	-12.028554	-122.676215	20.352804	-160.458715	-34.081636	28.307379	-8.362611	-144.937397
1.240000	-12.015319	-122.214942	20.347591	-160.271478	-34.098972	28.531223	-8.374929	-144.626813
1.250000	-12.002044	-121.754458	20.342389	-160.084435	-34.116329	28.754872	-8.387262	-144.316441
1.260000	-11.988757	-121.294561	20.337160	-159.897566	-34.133745	28.978349	-8.399647	-144.006139
1.270000	-11.975430	-120.835454	20.331942	-159.710891	-34.151182	29.201632	-8.412045	-143.696052
1.280000	-11.962072	-120.376741	20.326713	-159.524348	-34.168662	29.424782	-8.424483	-143.385890
1.290000	-11.948695	-119.919018	20.321479	-159.338041	-34.186178	29.647696	-8.436946	-143.076091
1.300000	-11.935288	-119.461689	20.316235	-159.151865	-34.203738	29.870479	-8.449450	-142.766216
1.310000	-11.921927	-119.005050	20.311020	-158.965903	-34.221083	30.094734	-8.461949	-142.456842
1.320000	-11.911137	-118.545286	20.307151	-158.780598	-34.228928	30.381459	-8.473219	-142.158323
1.330000	-11.900339	-118.086120	20.303259	-158.595469	-34.236802	30.668008	-8.484543	-141.859975
1.340000	-11.889505	-117.627757	20.299380	-158.410539	-34.244668	30.954359	-8.495880	-141.561947
1.350000	-11.878647	-117.169994	20.295495	-158.225777	-34.252545	31.240541	-8.507253	-141.264090
1.360000	-11.867765	-116.712835	20.291605	-158.041187	-34.260434	31.526551	-8.518662	-140.966408
1.370000	-11.856864	-116.256473	20.287712	-157.856799	-34.268331	31.812359	-8.530101	-140.669046
1.380000	-11.845946	-115.800911	20.283815	-157.672617	-34.276236	32.097961	-8.541572	-140.372008
1.390000	-11.835006	-115.345950	20.279914	-157.488605	-34.284153	32.383394	-8.553077	-140.075145
1.400000	-11.824048	-114.891785	20.276009	-157.304795	-34.292078	32.668624	-8.564614	-139.778604
1.410000	-11.813074	-114.437913	20.272106	-157.121012	-34.300041	32.954012	-8.576186	-139.481948
1.420000	-11.802819	-113.974001	20.267826	-156.932649	-34.309584	33.250397	-8.588401	-139.175372
1.430000	-11.792523	-113.510905	20.263560	-156.744487	-34.319122	33.546581	-8.600627	-138.869096
1.440000	-11.782213	-113.048422	20.259270	-156.556504	-34.328692	33.842585	-8.612901	-138.562968
1.450000	-11.771864	-112.586755	20.254995	-156.368720	-34.338256	34.138390	-8.625185	-138.257142
1.460000	-11.761486	-112.125706	20.250713	-156.181109	-34.347835	34.434023	-8.637502	-137.951467
1.470000	-11.751107	-111.665663	20.246413	-155.993747	-34.357440	34.729407	-8.649857	-137.646245
1.480000	-11.740685	-111.206238	20.242124	-155.806548	-34.367043	35.024628	-8.662227	-137.341176
1.490000	-11.730236	-110.747433	20.237830	-155.619522	-34.376659	35.319675	-8.674628	-137.036261
1.500000	-11.719771	-110.289633	20.233536	-155.432736	-34.386285	35.614483	-8.687051	-136.731801
1.510000	-11.709279	-109.832320	20.229231	-155.246124	-34.395730	35.908544	-8.699499	-136.427123
1.520000	-11.698717	-109.371407	20.224756	-155.059763	-34.398910	36.183822	-8.711738	-136.110516
1.530000	-11.688144	-108.911487	20.220280	-154.873640	-34.402090	36.458863	-8.723997	-135.794366
1.540000	-11.677566	-108.452168	20.215781	-154.687694	-34.405291	36.733727	-8.736302	-135.478370
1.550000	-11.666962	-107.993841	20.211298	-154.501978	-34.408475	37.008361	-8.748609	-135.162834
1.560000	-11.656338	-107.536117	20.206810	-154.316431	-34.411664	37.282825	-8.760947	-134.847453
1.570000	-11.645695	-107.078996	20.202316	-154.131055	-34.414857	37.557120	-8.773313	-134.532228
1.580000	-11.635043	-106.622860	20.197822	-153.945914	-34.418049	37.831178	-8.785699	-134.217465
1.590000	-11.624373	-106.167326	20.193322	-153.760942	-34.421246	38.105068	-8.798114	-133.902859
1.600000	-11.613696	-105.712776	20.188823	-153.576206	-34.424441	38.378721	-8.810547	-133.588717
1.610000	-11.603028	-105.258915	20.184335	-153.391650	-34.427537	38.651697	-8.823002	-133.274774
1.620000	-11.593204	-104.808621	20.180356	-153.207679	-34.427523	38.908981	-8.835246	-132.962442
1.630000	-11.583354	-104.359078	20.176394	-153.023902	-34.427491	39.166073	-8.847498	-132.650433
1.640000	-11.573495	-103.910284	20.172429	-152.840324	-34.427459	39.422966	-8.859776	-132.338745
1.650000	-11.563638	-103.462049	20.168444	-152.656924	-34.427446	39.679680	-8.872102	-132.027228
1.660000	-11.553762	-103.014752	20.164477	-152.473749	-34.427413	39.936170	-8.884431	-131.716189
1.670000	-11.543878	-102.568200	20.160509	-152.290773	-34.427379	40.192461	-8.896785	-131.405474
1.680000	-11.533996	-102.122202	20.156520	-152.107972	-34.427364	40.448577	-8.909186	-131.094929
1.690000	-11.524113	-101.677137	20.152534	-151.925402	-34.427346	40.704461	-8.921607	-130.784865
1.700000	-11.514208	-101.232816	20.148564	-151.743024	-34.427309	40.960154	-8.934036	-130.475128
1.710000	-11.504264	-100.788640	20.144579	-151.560691	-34.427509	41.215261	-8.946598	-130.165170
1.720000	-11.493138	-100.333898	20.140785	-151.374922	-34.433891	41.458441	-8.961603	-129.844496
1.730000	-11.481994	-99.879753	20.136986	-151.189323	-34.440280	41.701451	-8.976641	-129.523910
1.740000	-11.470842	-99.426580	20.133188	-151.003957	-34.446671	41.944229	-8.991700	-129.203723
1.750000	-11.459672	-98.974004	20.129387	-150.818761	-34.453068	42.186837	-9.006790	-128.883626
1.760000	-11.448513	-98.522399	20.125570	-150.633807	-34.459484	42.429203	-9.021918	-128.563931
1.770000	-11.437326	-98.071576	20.121770	-150.449043	-34.465887	42.671378	-9.037055	-128.244484
1.780000	-11.426145	-97.621534	20.117952	-150.264488	-34.472310	42.913345	-9.052235	-127.925284
1.790000	-11.414937	-97.172271	20.114150	-150.080123	-34.478720	43.155121	-9.067424	-127.606332
1.800000	-11.403735	-96.723788	20.110330	-149.895965	-34.485150	43.396691	-9.082655	-127.287629
1.810000	-11.392594	-96.275790	20.106533	-149.712034	-34.491767	43.636567	-9.097939	-126.969097
1.820000	-11.383303	-95.820744	20.103325	-149.529089	-34.503315	43.836216	-9.113967	-126.648662
1.830000	-11.373989	-95.366449	20.100117	-149.346342	-34.514876	44.035666	-9.130020	-126.328428
1.840000	-11.364674	-94.913096	20.096895	-149.163838	-34.526465	44.234874	-9.146109	-126.008559
1.850000	-11.355320	-94.460497	20.093692	-148.981523	-34.538050	44.433892	-9.162207	-125.688896
1.860000	-11.345953	-94.008466	20.090468	-148.799382	-34.549669	44.632736	-9.178352	-125.369278
1.870000	-11.336571	-93.557377	20.087248	-148.617473	-34.561297	44.831349	-9.194516	-125.050029
1.880000	-11.327174	-93.107229	20.084033	-148.435792	-34.572936	45.029733	-9.210698	-124.731149
1.890000	-11.317749	-92.657652	20.080815	-148.254276	-34.584591	45.227952	-9.226910	-124.412319
1.900000	-11.308326	-92.209016	20.077585	-148.072996	-34.596272	45.425935	-9.243157	-124.093860
1.910000	-11.298839	-91.760946	20.074368	-147.891927	-34.607602	45.625380	-9.259327	-123.775365
1.920000	-11.288822	-91.313661	20.071103	-147.712488	-34.610069	45.865531	-9.273251	-123.455117
1.930000	-11.278805	-90.867312	20.067842	-147.533272	-34.612531	46.105459	-9.287188	-123.135327
1.940000	-11.268789	-90.421526	20.064563	-147.354221	-34.615012	46.345222	-9.301166	-122.815665
1.950000	-11.258759	-89.976674	20.061306	-147.175385	-34.617469	46.584771	-9.315140	-122.496465
1.960000	-11.248738	-89.532570	20.058033	-146.996746	-34.619941	46.824122	-9.329149	-122.177561
1.970000	-11.238711	-89.089208	20.054763	-146.818294	-34.622411	47.063286	-9.343177	-121.858953
1.980000	-11.228687	-88.646776	20.051498	-146.640062	-34.624875	47.302230	-9.357217	-121.540810
1.990000	-11.218650	-88.204904	20.048233	-146.461986	-34.627339	47.541019	-9.371281	-121.222802
2.000000	-11.208640	-87.764139	20.044959	-146.284167	-34.629811	47.779549	-9.385368	-120.905425
2.010000	-11.198662	-87.323661	20.041705	-146.106315	-34.632684	48.019837	-9.399528	-120.587614
2.020000	-11.189737	-86.877695	20.038951	-145.924220	-34.645167	48.305754	-9.414874	-120.256611
2.030000	-11.180803	-86.432526	20.036199	-145.742311	-34.657663	48.591483	-9.430232	-119.925872
2.040000	-11.171876	-85.988153	20.033434	-145.560597	-34.670190	48.877018	-9.445621	-119.595397
2.050000	-11.162933	-85.544757	20.030692	-145.379092	-34.682709	49.162344	-9.460999	-119.265357
2.060000	-11.154014	-85.102155	20.027920	-145.197788	-34.695276	49.447468	-9.476424	-118.935583
2.070000	-11.145080	-84.660525	20.025171	-145.016691	-34.707835	49.732386	-9.491837	-118.606247
2.080000	-11.136156	-84.219686	20.022409	-144.835787	-34.720425	50.017111	-9.507281	-118.277182
2.090000	-11.127226	-83.779636	20.019651	-144.655065	-34.733027	50.301654	-9.522736	-117.948390
2.100000	-11.118291	-83.340373	20.016896	-144.474525	-34.745642	50.586014	-9.538204	-117.619871
2.110000	-11.109267	-82.901607	20.014145	-144.294391	-34.758039	50.869659	-9.553695	-117.291781
2.120000	-11.098145	-82.453121	20.011293	-144.118873	-34.765271	51.141596	-9.569589	-116.963747
2.130000	-11.087024	-82.005437	20.008444	-143.943535	-34.772504	51.413352	-9.585499	-116.635985
2.140000	-11.075920	-81.558552	20.005582	-143.768386	-34.779756	51.684921	-9.601442	-116.308494
2.150000	-11.064810	-81.112645	20.002745	-143.593441	-34.786988	51.956285	-9.617376	-115.981452
2.160000	-11.053719	-80.667533	19.999894	-143.418681	-34.794237	52.227465	-9.633343	-115.654682
2.170000	-11.042647	-80.223214	19.997029	-143.244108	-34.801505	52.498457	-9.649342	-115.328189
2.180000	-11.031586	-79.779866	19.994173	-143.069744	-34.808770	52.769240	-9.665349	-115.002148
2.190000	-11.020522	-79.337482	19.991341	-142.895578	-34.816014	53.039825	-9.681349	-114.676560
2.200000	-11.009486	-78.895706	19.988476	-142.721572	-34.823296	53.310251	-9.697403	-114.351076
2.210000	-10.998667	-78.455595	19.985632	-142.547751	-34.829395	53.579461	-9.713500	-114.027014
2.220000	-10.992465	-78.027611	19.982607	-142.373147	-34.810332	53.827079	-9.730891	-113.720396
2.230000	-10.986288	-77.600218	19.979570	-142.198730	-34.791322	54.074511	-9.748334	-113.414086
2.240000	-10.980111	-77.173587	19.976559	-142.024513	-34.772328	54.321743	-9.765791	-113.108258
2.250000	-10.973959	-76.747539	19.973537	-141.850477	-34.753386	54.568793	-9.783300	-112.802735
2.260000	-10.967839	-76.322253	19.970507	-141.676658	-34.734494	54.815627	-9.800856	-112.497697
2.270000	-10.961728	-75.897547	19.967482	-141.503012	-34.715638	55.062288	-9.818448	-112.192967
2.280000	-10.955635	-75.473595	19.964467	-141.329568	-34.696812	55.308746	-9.836069	-111.888721
2.290000	-10.949550	-75.050219	19.961458	-141.156297	-34.678022	55.555032	-9.853726	-111.584786
2.300000	-10.943499	-74.627594	19.958442	-140.983236	-34.659279	55.801107	-9.871429	-111.281335
2.310000	-10.937376	-74.204099	19.955434	-140.810482	-34.642401	56.044309	-9.889245	-110.976656
2.320000	-10.929410	-73.747723	19.952390	-140.640098	-34.663629	56.231897	-9.908873	-110.636587
2.330000	-10.921426	-73.292202	19.949352	-140.469882	-34.684900	56.419316	-9.928511	-110.296668
2.340000	-10.913433	-72.837710	19.946324	-140.299860	-34.706210	56.606541	-9.948152	-109.957078
2.350000	-10.905448	-72.384252	19.943288	-140.130045	-34.727577	56.793560	-9.967812	-109.617822
2.360000	-10.897446	-71.931647	19.940259	-139.960394	-34.748987	56.980415	-9.987482	-109.278724
2.370000	-10.889438	-71.480069	19.937239	-139.790933	-34.770436	57.167079	-10.007154	-108.939964
2.380000	-10.881432	-71.029348	19.934209	-139.621645	-34.791946	57.353571	-10.026853	-108.601369
2.390000	-10.873437	-70.579656	19.931172	-139.452554	-34.813513	57.539865	-10.046569	-108.263117
2.400000	-10.865422	-70.130989	19.928162	-139.283646	-34.835102	57.725976	-10.066272	-107.925219
2.410000	-10.857468	-69.683887	19.925179	-139.115066	-34.856335	57.913828	-10.086048	-107.587978
2.420000	-10.850294	-69.251865	19.923292	-138.949749	-34.868948	58.139457	-10.106456	-107.260804
2.430000	-10.843135	-68.820592	19.921396	-138.784597	-34.881588	58.364921	-10.126903	-106.933819
2.440000	-10.835985	-68.390238	19.919511	-138.619630	-34.894233	58.590201	-10.147365	-106.607209
2.450000	-10.828860	-67.960804	19.917620	-138.454856	-34.906900	58.815287	-10.167859	-106.280976
2.460000	-10.821737	-67.532115	19.915738	-138.290235	-34.919577	59.040220	-10.188375	-105.954942
2.470000	-10.814630	-67.104172	19.913846	-138.125777	-34.932280	59.264990	-10.208930	-105.629106
2.480000	-10.807545	-66.677313	19.911970	-137.961526	-34.944985	59.489553	-10.229492	-105.303838
2.490000	-10.800477	-66.251198	19.910085	-137.797436	-34.957716	59.713956	-10.250092	-104.978775
2.500000	-10.793423	-65.825992	19.908212	-137.633523	-34.970452	59.938181	-10.270707	-104.654103
2.510000	-10.786298	-65.400978	19.906346	-137.469599	-34.983145	60.169870	-10.291312	-104.329723
2.520000	-10.777805	-64.966515	19.904442	-137.302817	-34.994888	60.545994	-10.311335	-104.007334
2.530000	-10.769344	-64.532990	19.902550	-137.136217	-35.006631	60.921936	-10.331376	-103.685405
2.540000	-10.760923	-64.100229	19.900650	-136.969774	-35.018398	61.297720	-10.351459	-103.363747
2.550000	-10.752537	-63.668397	19.898763	-136.803509	-35.030166	61.673327	-10.371559	-103.042551
2.560000	-10.744191	-63.237324	19.896868	-136.637402	-35.041956	62.048776	-10.391700	-102.721632
2.570000	-10.735890	-62.807340	19.894990	-136.471497	-35.053744	62.424022	-10.411853	-102.401368
2.580000	-10.727615	-62.378101	19.893121	-136.305738	-35.065537	62.799124	-10.432030	-102.081382
2.590000	-10.719382	-61.949609	19.891244	-136.140132	-35.077353	63.174071	-10.452249	-101.761679
2.600000	-10.711212	-61.522195	19.889368	-135.974733	-35.089183	63.548812	-10.472496	-101.442636
2.610000	-10.703252	-61.095199	19.887484	-135.809745	-35.099810	63.912208	-10.492824	-101.124454
2.620000	-10.698627	-60.663085	19.885296	-135.649769	-35.088428	64.071284	-10.514219	-100.816962
2.630000	-10.694037	-60.231881	19.883107	-135.489997	-35.077062	64.230156	-10.535651	-100.510052
2.640000	-10.689446	-59.801245	19.880928	-135.330363	-35.065701	64.388890	-10.557117	-100.203344
2.650000	-10.684870	-59.371182	19.878741	-135.170872	-35.054364	64.547480	-10.578635	-99.896836
2.660000	-10.680314	-58.942022	19.876571	-135.011572	-35.043024	64.705880	-10.600173	-99.590918
2.670000	-10.675773	-58.513434	19.874394	-134.852415	-35.031708	64.864137	-10.621761	-99.285205
2.680000	-10.671242	-58.085581	19.872230	-134.693417	-35.020393	65.022235	-10.643375	-98.979892
2.690000	-10.666727	-57.658300	19.870058	-134.534560	-35.009100	65.180192	-10.665039	-98.674788
2.700000	-10.662233	-57.231919	19.867904	-134.375886	-34.997805	65.337965	-10.686722	-98.370283
2.710000	-10.657645	-56.805126	19.865786	-134.217036	-34.987617	65.496164	-10.708567	-98.065153
2.720000	-10.651120	-56.361776	19.864433	-134.052814	-34.996436	65.664087	-10.732405	-97.745545
2.730000	-10.644637	-55.919517	19.863082	-133.888782	-35.005261	65.831819	-10.756276	-97.426493
2.740000	-10.638160	-55.478012	19.861741	-133.724876	-35.014084	65.999426	-10.780176	-97.107608
2.750000	-10.631716	-55.037429	19.860398	-133.561130	-35.022917	66.166873	-10.804115	-96.789087
2.760000	-10.625281	-54.597596	19.859065	-133.397506	-35.031747	66.334197	-10.828084	-96.470737
2.770000	-10.618880	-54.158681	19.857730	-133.234038	-35.040588	66.501366	-10.852091	-96.152759
2.780000	-10.612498	-53.720680	19.856410	-133.070719	-35.049422	66.668386	-10.876120	-95.835158
2.790000	-10.606154	-53.283594	19.855088	-132.907553	-35.058266	66.835252	-10.900187	-95.517938
2.800000	-10.599830	-52.847417	19.853782	-132.744533	-35.067103	67.001974	-10.924276	-95.201104
2.810000	-10.593568	-52.413554	19.852466	-132.581892	-35.075310	67.175277	-10.948260	-94.884972
2.820000	-10.588206	-52.007014	19.850795	-132.423841	-35.072978	67.461354	-10.970055	-94.577975
2.830000	-10.582867	-51.601241	19.849157	-132.265923	-35.070613	67.747298	-10.991856	-94.271499
2.840000	-10.577585	-51.196081	19.847495	-132.108133	-35.068272	68.033113	-11.013721	-93.965340
2.850000	-10.572326	-50.791682	19.845866	-131.950473	-35.065900	68.318799	-11.035591	-93.659707
2.860000	-10.567136	-50.388055	19.844219	-131.792965	-35.063546	68.604332	-11.057517	-93.354600
2.870000	-10.561969	-49.985183	19.842604	-131.635584	-35.061160	68.889739	-11.079450	-93.050025
2.880000	-10.556862	-49.582916	19.840967	-131.478327	-35.058798	69.175021	-11.101445	-92.745777
2.890000	-10.551778	-49.181399	19.839362	-131.321193	-35.056403	69.460181	-11.123446	-92.442067
2.900000	-10.546765	-48.780645	19.837739	-131.164207	-35.054027	69.745192	-11.145502	-92.138897
2.910000	-10.541734	-48.379214	19.836131	-131.007257	-35.052889	70.023323	-11.167546	-91.835601
2.920000	-10.536060	-47.955367	19.834210	-130.849001	-35.072424	70.191581	-11.189343	-91.521693
2.930000	-10.530402	-47.532467	19.832322	-130.690862	-35.091968	70.359722	-11.211126	-91.208311
2.940000	-10.524808	-47.110526	19.830416	-130.532860	-35.111572	70.527726	-11.232943	-90.895456
2.950000	-10.519246	-46.689533	19.828527	-130.374982	-35.131201	70.695606	-11.254761	-90.583138
2.960000	-10.513706	-46.269322	19.826651	-130.217197	-35.150861	70.863393	-11.276587	-90.271150
2.970000	-10.508217	-45.850057	19.824775	-130.059537	-35.170565	71.031055	-11.298431	-89.959705
2.980000	-10.502763	-45.431732	19.822915	-129.901994	-35.190294	71.198600	-11.320276	-89.648813
2.990000	-10.497361	-45.014350	19.821055	-129.744576	-35.210067	71.366020	-11.342138	-89.338478
3.000000	-10.492000	-44.597747	19.819191	-129.587255	-35.229889	71.533343	-11.364024	-89.028494
3.010000	-10.486567	-44.181892	19.817374	-129.430267	-35.248151	71.702500	-11.386116	-88.718140
3.020000	-10.479428	-43.763992	19.816030	-129.276867	-35.241568	71.902008	-11.411417	-88.393592
3.030000	-10.472344	-43.346849	19.814685	-129.123593	-35.234992	72.101392	-11.436762	-88.069461
3.040000	-10.465305	-42.930296	19.813336	-128.970414	-35.228426	72.300679	-11.462158	-87.745532
3.050000	-10.458305	-42.514492	19.812004	-128.817352	-35.221849	72.499851	-11.487581	-87.422029